TITLE = "Radial inlet profile"
VARIABLES = "RelativeCoordinateR" "PressureStagnationAbs" "TemperatureStagnationAbs" "TurbulenceIntensityAbs" "TurbulentLengthScale" "MachAbs" "VelocityAngleThetaAbs" "VelocityAngleR" 
ZONE T = "Entry", I = 50, DATAPACKING = POINT					       
0.000000	47318.4141	285.601715	0.12192524	0.00018	0.00607387	0	0
0.000015	47334.3828	285.611877	0.12192524	0.00018	0.00640076	0	0
0.000045	47398.0781	285.652252	0.12192524	0.00018	0.00840405	0	0
0.000105	47649.6562	285.809784	0.12192524	0.00018	0.01575469	0	0
0.000225	48484.9414	286.287354	0.12192524	0.00018	0.03040706	0	0
0.000464	49834.3867	286.814423	0.12192524	0.00018	0.0538946	0	0
0.000944	51309.6953	287.18338	0.12192524	0.00018	0.10514797	0	0
0.001903	52890.1367	287.477905	0.12192524	0.00018	0.17286707	0	0
0.003821	54596.0312	287.742432	0.05318809	0.00018	0.24753504	0	0
0.007657	56404.918	287.974945	0.05318809	0.00018	0.32627148	0	0
0.015328	58529.0234	288.149628	0.05318809	0.00018	0.40064812	0	0
0.030671	60190.0391	288.014038	0.04988658	0.00018	0.45181596	0	0
0.061358	60305.0156	288.000183	0.04978514	0.00018	0.45969129	0	0
0.096449	60299.6719	287.999817	0.04975794	0.00018	0.46031341	0	0
0.131540	60296.9531	287.999817	0.04971235	0.00018	0.46058278	0	0
0.166632	60295.4805	287.999908	0.04965888	0.00018	0.46100673	0	0
0.201723	60294.9258	287.999939	0.04960227	0.00018	0.46151299	0	0
0.236815	60294.457	287.999939	0.04954459	0.00018	0.46205877	0	0
0.271906	60294.2031	287.999969	0.04948728	0.00018	0.46262042	0	0
0.306997	60293.9609	288.000000	0.04943163	0.00018	0.46318038	0	0
0.342089	60293.7969	288.000031	0.04937868	0.00018	0.46372503	0	0
0.377180	60293.6289	288.000122	0.04932971	0.00018	0.46424361	0	0
0.412272	60293.4258	288.000275	0.04928576	0.00018	0.46472369	0	0
0.447363	60293.0703	288.000519	0.04924924	0.00018	0.46515707	0	0
0.482454	60292.4023	288.000885	0.04922553	0.00018	0.46553336	0	0
0.517546	60291.1875	288.001373	0.04922246	0.00018	0.46584262	0	0
0.552637	60289.0859	288.002045	0.04924347	0.00018	0.46606848	0	0
0.587728	60285.7031	288.002838	0.04929141	0.00018	0.46620088	0	0
0.622820	60280.7109	288.003693	0.04937072	0.00018	0.46623127	0	0
0.657911	60273.8008	288.004517	0.04948226	0.00018	0.46614286	0	0
0.693003	60264.7656	288.005188	0.04962692	0.00018	0.46593294	0	0
0.728094	60253.5352	288.005737	0.04980425	0.00018	0.46559241	0	0
0.763185	60240.1289	288.006104	0.05001114	0.00018	0.46511897	0	0
0.798277	60224.4922	288.006073	0.05024197	0.00018	0.46451878	0	0
0.833368	60207.0312	288.004852	0.05048711	0.00018	0.46377763	0	0
0.868460	60189.7812	288.002533	0.05073669	0.00018	0.46280995	0	0
0.903551	60170.9688	288.00351	0.05125017	0.00018	0.46135193	0	0
0.938642	60109.5781	288.011536	0.05595311	0.00018	0.45741251	0	0
0.969329	59536.1875	288.058716	0.08165902	0.00018	0.43792197	0	0
0.984672	58045.5078	287.998138	0.14929726	0.00018	0.3855479	0	0
0.992343	55737.5039	287.831665	0.14929726	0.00018	0.2982784	0	0
0.996179	53540.4492	287.642334	0.14929726	0.00018	0.20709646	0	0
0.998040	51820.9102	287.395477	0.14929726	0.00018	0.13369874	0	0
0.999056	50461.9648	287.052857	0.14929726	0.00018	0.07211821	0	0
0.999535	49272.1523	286.599304	0.14929726	0.00018	0.04194784	0	0
0.999775	48090.4375	285.889099	0.14929726	0.00018	0.02507503	0	0
0.999895	47303.9258	285.257812	0.14929726	0.00018	0.01282062	0	0
0.999955	47069.4336	285.055206	0.14929726	0.00018	0.00863473	0	0
0.999985	47010.3594	285.003693	0.14929726	0.00018	0.00805565	0	0
1.000000	46994.5000	284.990784	0.14929726	0.00018	0.00811239	0	0